
Host: ds1.sherrill.chemistry.gatech.edu

Timers On : Tue Jan 17 12:00:38 2017
Timers Off: Tue Jan 17 12:00:39 2017

Wall Time:        1.00 seconds


***********************************************************
